
     Program PWSCF v.6.1 (svn rev. 13369) starts on  1Feb2020 at 19:10:21 

     This program is part of the open-source Quantum ESPRESSO suite
     for quantum simulation of materials; please cite
         "P. Giannozzi et al., J. Phys.:Condens. Matter 21 395502 (2009);
          URL http://www.quantum-espresso.org", 
     in publications or presentations arising from this work. More details at
     http://www.quantum-espresso.org/quote

     Parallel version (MPI), running on    36 processors
     R & G space division:  proc/nbgrp/npool/nimage =      36
     Waiting for input...
     Reading input from standard input

     Current dimensions of program PWSCF are:
     Max number of different atomic species (ntypx) = 10
     Max number of k-points (npk) =  40000
     Max angular momentum in pseudopotentials (lmaxx) =  3

     Subspace diagonalization in iterative solution of the eigenvalue problem:
     a serial algorithm will be used

 
     Parallelization info
     --------------------
     sticks:   dense  smooth     PW     G-vecs:    dense   smooth      PW
     Min          13      13      4                  193      193      33
     Max          14      14      5                  195      195      36
     Sum         499     499    151                 6975     6975    1243
 


     bravais-lattice index     =            2
     lattice parameter (alat)  =       7.6520  a.u.
     unit-cell volume          =     112.0121 (a.u.)^3
     number of atoms/cell      =            1
     number of atomic types    =            1
     number of electrons       =         3.00
     number of Kohn-Sham states=            6
     kinetic-energy cutoff     =      60.0000  Ry
     charge density cutoff     =     240.0000  Ry
     convergence threshold     =      1.0E-07
     mixing beta               =       0.7000
     number of iterations used =            8  plain     mixing
     Exchange-correlation      =  SLA  PW   PBE  PBE ( 1  4  3  4 0 0)

     celldm(1)=   7.652000  celldm(2)=   0.000000  celldm(3)=   0.000000
     celldm(4)=   0.000000  celldm(5)=   0.000000  celldm(6)=   0.000000

     crystal axes: (cart. coord. in units of alat)
               a(1) = (  -0.500000   0.000000   0.500000 )  
               a(2) = (   0.000000   0.500000   0.500000 )  
               a(3) = (  -0.500000   0.500000   0.000000 )  

     reciprocal axes: (cart. coord. in units 2 pi/alat)
               b(1) = ( -1.000000 -1.000000  1.000000 )  
               b(2) = (  1.000000  1.000000  1.000000 )  
               b(3) = ( -1.000000  1.000000 -1.000000 )  


     PseudoPot. # 1 for Al read from file:
     ./Al.pbe-n-van.UPF
     MD5 check sum: b11ded24487aef5bc42d5c7a2e22a7b6
     Pseudo is Ultrasoft + core correction, Zval =  3.0
     Generated by new atomic code, or converted to UPF format
     Using radial grid of  893 points,  2 beta functions with: 
                l(1) =   0
                l(2) =   1
     Q(r) pseudized with  8 coefficients,  rinner =    0.900   0.900   0.900


     atomic species   valence    mass     pseudopotential
        Al             3.00    26.98000     Al( 1.00)

     48 Sym. Ops., with inversion, found



   Cartesian axes

     site n.     atom                  positions (alat units)
         1           Al  tau(   1) = (   0.0000000   0.0000000   0.0000000  )

     number of k points=    29  gaussian smearing, width (Ry)=  0.0100
                       cart. coord. in units 2pi/alat
        k(    1) = (   0.0000000   0.0000000   0.0000000), wk =   0.0039062
        k(    2) = (  -0.1250000   0.1250000  -0.1250000), wk =   0.0312500
        k(    3) = (  -0.2500000   0.2500000  -0.2500000), wk =   0.0312500
        k(    4) = (  -0.3750000   0.3750000  -0.3750000), wk =   0.0312500
        k(    5) = (   0.5000000  -0.5000000   0.5000000), wk =   0.0156250
        k(    6) = (   0.0000000   0.2500000   0.0000000), wk =   0.0234375
        k(    7) = (  -0.1250000   0.3750000  -0.1250000), wk =   0.0937500
        k(    8) = (  -0.2500000   0.5000000  -0.2500000), wk =   0.0937500
        k(    9) = (   0.6250000  -0.3750000   0.6250000), wk =   0.0937500
        k(   10) = (   0.5000000  -0.2500000   0.5000000), wk =   0.0937500
        k(   11) = (   0.3750000  -0.1250000   0.3750000), wk =   0.0937500
        k(   12) = (   0.2500000   0.0000000   0.2500000), wk =   0.0468750
        k(   13) = (   0.0000000   0.5000000   0.0000000), wk =   0.0234375
        k(   14) = (  -0.1250000   0.6250000  -0.1250000), wk =   0.0937500
        k(   15) = (   0.7500000  -0.2500000   0.7500000), wk =   0.0937500
        k(   16) = (   0.6250000  -0.1250000   0.6250000), wk =   0.0937500
        k(   17) = (   0.5000000   0.0000000   0.5000000), wk =   0.0468750
        k(   18) = (   0.0000000   0.7500000   0.0000000), wk =   0.0234375
        k(   19) = (   0.8750000  -0.1250000   0.8750000), wk =   0.0937500
        k(   20) = (   0.7500000   0.0000000   0.7500000), wk =   0.0468750
        k(   21) = (   0.0000000  -1.0000000   0.0000000), wk =   0.0117188
        k(   22) = (  -0.2500000   0.5000000   0.0000000), wk =   0.0937500
        k(   23) = (   0.6250000  -0.3750000   0.8750000), wk =   0.1875000
        k(   24) = (   0.5000000  -0.2500000   0.7500000), wk =   0.0937500
        k(   25) = (   0.7500000  -0.2500000   1.0000000), wk =   0.0937500
        k(   26) = (   0.6250000  -0.1250000   0.8750000), wk =   0.1875000
        k(   27) = (   0.5000000   0.0000000   0.7500000), wk =   0.0937500
        k(   28) = (  -0.2500000  -1.0000000   0.0000000), wk =   0.0468750
        k(   29) = (  -0.5000000  -1.0000000   0.0000000), wk =   0.0234375

     Dense  grid:     6975 G-vectors     FFT dimensions: (  27,  27,  27)

     Estimated max dynamical RAM per process >       0.24MB

     Estimated total allocated dynamical RAM >       8.62MB

     Initial potential from superposition of free atoms

     starting charge    2.99753, renormalised to    3.00000
     Starting wfc are    4 randomized atomic wfcs +    2 random wfc

     total cpu time spent up to now is        1.1 secs

     per-process dynamical memory:    31.2 Mb

     Self-consistent Calculation

     iteration #  1     ecut=    60.00 Ry     beta=0.70
     Davidson diagonalization with overlap
     ethr =  1.00E-02,  avg # of iterations =  5.0

     Threshold (ethr) on eigenvalues was too large:
     Diagonalizing with lowered threshold

     Davidson diagonalization with overlap
     ethr =  2.23E-04,  avg # of iterations =  1.9

     total cpu time spent up to now is        1.3 secs

     total energy              =     -12.46628422 Ry
     Harris-Foulkes estimate   =     -12.46878020 Ry
     estimated scf accuracy    <       0.00667093 Ry

     iteration #  2     ecut=    60.00 Ry     beta=0.70
     Davidson diagonalization with overlap
     ethr =  2.22E-04,  avg # of iterations =  1.0

     total cpu time spent up to now is        1.4 secs

     total energy              =     -12.46627641 Ry
     Harris-Foulkes estimate   =     -12.46643123 Ry
     estimated scf accuracy    <       0.00040657 Ry

     iteration #  3     ecut=    60.00 Ry     beta=0.70
     Davidson diagonalization with overlap
     ethr =  1.36E-05,  avg # of iterations =  3.0

     total cpu time spent up to now is        1.4 secs

     total energy              =     -12.46631218 Ry
     Harris-Foulkes estimate   =     -12.46631265 Ry
     estimated scf accuracy    <       0.00000120 Ry

     iteration #  4     ecut=    60.00 Ry     beta=0.70
     Davidson diagonalization with overlap
     ethr =  4.01E-08,  avg # of iterations =  2.7

     total cpu time spent up to now is        1.5 secs

     End of self-consistent calculation

          k = 0.0000 0.0000 0.0000 (   893 PWs)   bands (ev):

    -3.2668  20.4379  20.4379  21.6314  21.6314  21.6314

          k =-0.1250 0.1250-0.1250 (   893 PWs)   bands (ev):

    -2.8430  16.1098  19.4261  19.4261  22.2552  23.1983

          k =-0.2500 0.2500-0.2500 (   890 PWs)   bands (ev):

    -1.5788  11.2730  18.6546  18.6547  21.8343  22.4372

          k =-0.3750 0.3750-0.3750 (   878 PWs)   bands (ev):

     0.5047   6.9886  18.5589  18.5589  20.4922  20.4923

          k = 0.5000-0.5000 0.5000 (   886 PWs)   bands (ev):

     3.2722   3.4813  19.0618  19.0618  19.2881  19.2881

          k = 0.0000 0.2500 0.0000 (   889 PWs)   bands (ev):

    -2.7020  17.6788  17.6788  17.9927  20.3992  22.3959

          k =-0.1250 0.3750-0.1250 (   885 PWs)   bands (ev):

    -1.7188  13.1248  16.6238  18.1032  19.3073  21.7265

          k =-0.2500 0.5000-0.2500 (   876 PWs)   bands (ev):

     0.0900   8.6827  16.2785  16.9933  17.8916  23.9043

          k = 0.6250-0.3750 0.6250 (   883 PWs)   bands (ev):

     2.6906   4.8614  15.3760  16.6458  18.3237  22.4162

          k = 0.5000-0.2500 0.5000 (   873 PWs)   bands (ev):

     1.7397   6.0542  14.5016  17.7240  19.4865  21.5930

          k = 0.3750-0.1250 0.3750 (   877 PWs)   bands (ev):

    -0.6029  10.0790  14.4001  19.4818  21.3430  21.4696

          k = 0.2500 0.0000 0.2500 (   887 PWs)   bands (ev):

    -2.1394  14.2774  15.4528  21.5309  21.5997  23.0941

          k = 0.0000 0.5000 0.0000 (   881 PWs)   bands (ev):

    -1.0206  15.3114  15.3114  15.3308  16.0418  18.5018

          k =-0.1250 0.6250-0.1250 (   876 PWs)   bands (ev):

     0.5028  11.0637  13.3919  14.7188  16.1348  19.9756

          k = 0.7500-0.2500 0.7500 (   875 PWs)   bands (ev):

     2.8205   7.1003  11.4788  14.8440  16.4452  23.6285

          k = 0.6250-0.1250 0.6250 (   871 PWs)   bands (ev):

     3.7691   5.8820  10.3611  15.6865  17.4111  25.3033

          k = 0.5000 0.0000 0.5000 (   883 PWs)   bands (ev):

     1.1918   9.0972  10.5652  17.2431  19.0936  25.1603

          k = 0.0000 0.7500 0.0000 (   870 PWs)   bands (ev):

     1.7323  10.4222  13.6775  13.8820  13.8820  17.1041

          k = 0.8750-0.1250 0.8750 (   877 PWs)   bands (ev):

     3.7335   8.2219  10.0525  13.7647  15.0856  19.0513

          k = 0.7500 0.0000 0.7500 (   874 PWs)   bands (ev):

     5.9765   6.5048   7.4361  14.3659  15.9286  23.2064

          k = 0.0000-1.0000 0.0000 (   846 PWs)   bands (ev):

     4.9372   6.2533  13.1220  13.4056  13.4056  16.6095

          k =-0.2500 0.5000 0.0000 (   880 PWs)   bands (ev):

    -0.4643  11.6959  13.0482  16.5330  19.9195  21.4291

          k = 0.6250-0.3750 0.8750 (   876 PWs)   bands (ev):

     1.6017   7.9886  12.3931  14.4194  20.4610  22.4773

          k = 0.5000-0.2500 0.7500 (   882 PWs)   bands (ev):

     4.3206   4.5692  12.8151  13.2099  20.9725  21.3486

          k = 0.7500-0.2500 1.0000 (   880 PWs)   bands (ev):

     2.2776  10.1384  10.8463  11.6706  18.4361  20.1699

          k = 0.6250-0.1250 0.8750 (   884 PWs)   bands (ev):

     4.8000   6.9284   9.2974  11.4289  19.5357  23.5129

          k = 0.5000 0.0000 0.7500 (   885 PWs)   bands (ev):

     3.8996   7.5367   8.9816  12.5289  20.7075  24.0203

          k =-0.2500-1.0000 0.0000 (   876 PWs)   bands (ev):

     5.4567   6.7927   9.6182  11.0769  17.9310  19.7223

          k =-0.5000-1.0000 0.0000 (   876 PWs)   bands (ev):

     7.0167   7.0167   8.0407   8.8905  23.5483  23.5483

     the Fermi energy is     7.8843 ev

!    total energy              =     -12.46631363 Ry
     Harris-Foulkes estimate   =     -12.46631364 Ry
     estimated scf accuracy    <       0.00000009 Ry

     The total energy is the sum of the following terms:

     one-electron contribution =       2.94488628 Ry
     hartree contribution      =       0.00791200 Ry
     xc contribution           =     -10.02625367 Ry
     ewald contribution        =      -5.39254557 Ry
     smearing contrib. (-TS)   =      -0.00031267 Ry

     convergence has been achieved in   4 iterations

     Writing output data file al-fcc.save
 
     init_run     :      0.03s CPU      0.29s WALL (       1 calls)
     electrons    :      0.28s CPU      0.41s WALL (       1 calls)

     Called by init_run:
     wfcinit      :      0.01s CPU      0.11s WALL (       1 calls)
     potinit      :      0.00s CPU      0.01s WALL (       1 calls)

     Called by electrons:
     c_bands      :      0.24s CPU      0.34s WALL (       5 calls)
     sum_band     :      0.03s CPU      0.04s WALL (       5 calls)
     v_of_rho     :      0.00s CPU      0.01s WALL (       5 calls)
     newd         :      0.00s CPU      0.02s WALL (       5 calls)
     mix_rho      :      0.00s CPU      0.00s WALL (       5 calls)

     Called by c_bands:
     init_us_2    :      0.00s CPU      0.00s WALL (     319 calls)
     cegterg      :      0.23s CPU      0.25s WALL (     145 calls)

     Called by sum_band:
     sum_band:bec :      0.00s CPU      0.00s WALL (     145 calls)
     addusdens    :      0.00s CPU      0.00s WALL (       5 calls)

     Called by *egterg:
     h_psi        :      0.15s CPU      0.19s WALL (     568 calls)
     s_psi        :      0.00s CPU      0.00s WALL (     568 calls)
     g_psi        :      0.00s CPU      0.00s WALL (     394 calls)
     cdiaghg      :      0.06s CPU      0.12s WALL (     510 calls)

     Called by h_psi:
     h_psi:pot    :      0.15s CPU      0.19s WALL (     568 calls)
     h_psi:calbec :      0.01s CPU      0.02s WALL (     568 calls)
     vloc_psi     :      0.13s CPU      0.16s WALL (     568 calls)
     add_vuspsi   :      0.00s CPU      0.01s WALL (     568 calls)

     General routines
     calbec       :      0.02s CPU      0.03s WALL (     713 calls)
     fft          :      0.01s CPU      0.14s WALL (      67 calls)
     fftw         :      0.15s CPU      0.18s WALL (    5840 calls)
     davcio       :      0.00s CPU      0.00s WALL (      29 calls)
 
     Parallel routines
     fft_scatter  :      0.11s CPU      0.13s WALL (    5907 calls)
 
     PWSCF        :     0.39s CPU         1.67s WALL

 
   This run was terminated on:  19:10:22   1Feb2020            

=------------------------------------------------------------------------------=
   JOB DONE.
=------------------------------------------------------------------------------=
