
     Program PWSCF v.6.1 (svn rev. 13369) starts on 30Jan2020 at 16:17: 0 

     This program is part of the open-source Quantum ESPRESSO suite
     for quantum simulation of materials; please cite
         "P. Giannozzi et al., J. Phys.:Condens. Matter 21 395502 (2009);
          URL http://www.quantum-espresso.org", 
     in publications or presentations arising from this work. More details at
     http://www.quantum-espresso.org/quote

     Parallel version (MPI), running on    36 processors
     R & G space division:  proc/nbgrp/npool/nimage =      36
     Waiting for input...
     Reading input from standard input

     Current dimensions of program PWSCF are:
     Max number of different atomic species (ntypx) = 10
     Max number of k-points (npk) =  40000
     Max angular momentum in pseudopotentials (lmaxx) =  3

     Subspace diagonalization in iterative solution of the eigenvalue problem:
     a serial algorithm will be used

 
     Parallelization info
     --------------------
     sticks:   dense  smooth     PW     G-vecs:    dense   smooth      PW
     Min          16      16      5                  254      254      42
     Max          17      17      6                  256      256      45
     Sum         599     599    181                 9189     9189    1601
 


     bravais-lattice index     =            3
     lattice parameter (alat)  =       6.6330  a.u.
     unit-cell volume          =     145.9150 (a.u.)^3
     number of atoms/cell      =            1
     number of atomic types    =            1
     number of electrons       =         1.00
     number of Kohn-Sham states=            5
     kinetic-energy cutoff     =      60.0000  Ry
     charge density cutoff     =     240.0000  Ry
     convergence threshold     =      1.0E-07
     mixing beta               =       0.7000
     number of iterations used =            8  plain     mixing
     Exchange-correlation      =  SLA  PW   PBE  PBE ( 1  4  3  4 0 0)

     celldm(1)=   6.633000  celldm(2)=   0.000000  celldm(3)=   0.000000
     celldm(4)=   0.000000  celldm(5)=   0.000000  celldm(6)=   0.000000

     crystal axes: (cart. coord. in units of alat)
               a(1) = (   0.500000   0.500000   0.500000 )  
               a(2) = (  -0.500000   0.500000   0.500000 )  
               a(3) = (  -0.500000  -0.500000   0.500000 )  

     reciprocal axes: (cart. coord. in units 2 pi/alat)
               b(1) = (  1.000000  0.000000  1.000000 )  
               b(2) = ( -1.000000  1.000000  0.000000 )  
               b(3) = (  0.000000 -1.000000  1.000000 )  


     PseudoPot. # 1 for Li read from file:
     ./Li.pbe-n-van.UPF
     MD5 check sum: 057edeeab9105e5446fd9e29ea3f9c2f
     Pseudo is Ultrasoft + core correction, Zval =  1.0
     Generated by new atomic code, or converted to UPF format
     Using radial grid of  751 points,  2 beta functions with: 
                l(1) =   1
                l(2) =   1
     Q(r) pseudized with  8 coefficients,  rinner =    1.000   1.000   1.000


     atomic species   valence    mass     pseudopotential
        Li             1.00     6.94000     Li( 1.00)

     48 Sym. Ops., with inversion, found



   Cartesian axes

     site n.     atom                  positions (alat units)
         1           Li  tau(   1) = (   0.0000000   0.0000000   0.0000000  )

     number of k points=    29  gaussian smearing, width (Ry)=  0.0100
                       cart. coord. in units 2pi/alat
        k(    1) = (   0.0000000   0.0000000   0.0000000), wk =   0.0039062
        k(    2) = (   0.0000000  -0.1250000   0.1250000), wk =   0.0468750
        k(    3) = (   0.0000000  -0.2500000   0.2500000), wk =   0.0468750
        k(    4) = (   0.0000000  -0.3750000   0.3750000), wk =   0.0468750
        k(    5) = (   0.0000000   0.5000000  -0.5000000), wk =   0.0234375
        k(    6) = (  -0.1250000  -0.1250000   0.2500000), wk =   0.0937500
        k(    7) = (  -0.1250000  -0.2500000   0.3750000), wk =   0.1875000
        k(    8) = (  -0.1250000   0.6250000  -0.5000000), wk =   0.1875000
        k(    9) = (  -0.2500000   0.7500000  -0.5000000), wk =   0.0937500
        k(   10) = (  -0.2500000   0.6250000  -0.3750000), wk =   0.0937500
        k(   11) = (   0.0000000   0.0000000   0.2500000), wk =   0.0234375
        k(   12) = (   0.0000000  -0.1250000   0.3750000), wk =   0.0937500
        k(   13) = (   0.0000000  -0.2500000   0.5000000), wk =   0.0937500
        k(   14) = (   0.0000000   0.6250000  -0.3750000), wk =   0.0468750
        k(   15) = (  -0.1250000  -0.1250000   0.5000000), wk =   0.0937500
        k(   16) = (  -0.1250000   0.7500000  -0.3750000), wk =   0.1875000
        k(   17) = (  -0.2500000   0.2500000   0.2500000), wk =   0.0312500
        k(   18) = (  -0.2500000   0.7500000  -0.2500000), wk =   0.0312500
        k(   19) = (   0.6250000  -0.6250000   0.2500000), wk =   0.0937500
        k(   20) = (   0.5000000  -0.5000000   0.2500000), wk =   0.0468750
        k(   21) = (   0.5000000  -0.6250000   0.3750000), wk =   0.0937500
        k(   22) = (   0.0000000   0.0000000   0.5000000), wk =   0.0234375
        k(   23) = (   0.0000000  -0.1250000   0.6250000), wk =   0.0937500
        k(   24) = (   0.0000000   0.7500000  -0.2500000), wk =   0.0468750
        k(   25) = (  -0.1250000   0.8750000  -0.2500000), wk =   0.0937500
        k(   26) = (   0.5000000  -0.5000000   0.5000000), wk =   0.0078125
        k(   27) = (   0.0000000   0.0000000   0.7500000), wk =   0.0234375
        k(   28) = (   0.0000000   0.8750000  -0.1250000), wk =   0.0468750
        k(   29) = (   0.0000000   0.0000000  -1.0000000), wk =   0.0039062

     Dense  grid:     9189 G-vectors     FFT dimensions: (  30,  30,  30)

     Estimated max dynamical RAM per process >       0.32MB

     Estimated total allocated dynamical RAM >      11.36MB

     Initial potential from superposition of free atoms

     starting charge    0.99533, renormalised to    1.00000
     Starting wfc are    4 randomized atomic wfcs +    1 random wfc

     total cpu time spent up to now is        0.4 secs

     per-process dynamical memory:    31.2 Mb

     Self-consistent Calculation

     iteration #  1     ecut=    60.00 Ry     beta=0.70
     Davidson diagonalization with overlap
     ethr =  1.00E-02,  avg # of iterations =  5.7

     Threshold (ethr) on eigenvalues was too large:
     Diagonalizing with lowered threshold

     Davidson diagonalization with overlap
     ethr =  1.60E-05,  avg # of iterations =  5.9

     total cpu time spent up to now is        0.6 secs

     total energy              =      -1.81089193 Ry
     Harris-Foulkes estimate   =      -1.81091650 Ry
     estimated scf accuracy    <       0.00013863 Ry

     iteration #  2     ecut=    60.00 Ry     beta=0.70
     Davidson diagonalization with overlap
     ethr =  1.39E-05,  avg # of iterations =  1.0

     total cpu time spent up to now is        0.6 secs

     total energy              =      -1.81089014 Ry
     Harris-Foulkes estimate   =      -1.81089249 Ry
     estimated scf accuracy    <       0.00001218 Ry

     iteration #  3     ecut=    60.00 Ry     beta=0.70
     Davidson diagonalization with overlap
     ethr =  1.22E-06,  avg # of iterations =  1.1

     total cpu time spent up to now is        0.7 secs

     End of self-consistent calculation

          k = 0.0000 0.0000 0.0000 (  1157 PWs)   bands (ev):

    -3.0383  14.5193  14.5193  14.5193  19.9410

          k = 0.0000-0.1250 0.1250 (  1141 PWs)   bands (ev):

    -2.7351  12.7777  13.4519  14.0633  17.3086

          k = 0.0000-0.2500 0.2500 (  1134 PWs)   bands (ev):

    -1.8307   9.0335  11.8968  13.0570  15.6381

          k = 0.0000-0.3750 0.3750 (  1148 PWs)   bands (ev):

    -0.3853   5.6041  10.8483  12.2243  14.4955

          k = 0.0000 0.5000-0.5000 (  1148 PWs)   bands (ev):

     0.8387   3.6990  10.4881  11.9206  14.1146

          k =-0.1250-0.1250 0.2500 (  1146 PWs)   bands (ev):

    -2.1299  10.7893  11.3164  12.8255  16.8328

          k =-0.1250-0.2500 0.3750 (  1133 PWs)   bands (ev):

    -0.9342   7.2879   9.8978  11.7113  16.8250

          k =-0.1250 0.6250-0.5000 (  1148 PWs)   bands (ev):

     0.6707   4.3655   9.2180  11.0892  16.4455

          k =-0.2500 0.7500-0.5000 (  1139 PWs)   bands (ev):

     0.5334   5.3796   7.5867  11.0469  17.6236

          k =-0.2500 0.6250-0.3750 (  1152 PWs)   bands (ev):

     1.9811   3.5865   6.9614  10.8196  18.1819

          k = 0.0000 0.0000 0.2500 (  1140 PWs)   bands (ev):

    -2.4304  12.1919  12.1919  13.6564  15.1812

          k = 0.0000-0.1250 0.3750 (  1140 PWs)   bands (ev):

    -1.5206   9.1246  10.5317  12.9889  14.4758

          k = 0.0000-0.2500 0.5000 (  1150 PWs)   bands (ev):

    -0.0584   5.7760   9.4502  12.2477  15.4004

          k = 0.0000 0.6250-0.3750 (  1144 PWs)   bands (ev):

     1.2168   3.8388   9.0822  11.9704  16.2405

          k =-0.1250-0.1250 0.5000 (  1144 PWs)   bands (ev):

    -0.3133   7.1720   8.4352  12.8638  13.7387

          k =-0.1250 0.7500-0.3750 (  1148 PWs)   bands (ev):

     1.3552   4.5725   7.5322  12.4756  14.7503

          k =-0.2500 0.2500 0.2500 (  1127 PWs)   bands (ev):

    -1.2288   9.0990   9.0990  10.5128  18.5195

          k =-0.2500 0.7500-0.2500 (  1165 PWs)   bands (ev):

     3.1050   3.1050   6.4692  12.8187  15.6025

          k = 0.6250-0.6250 0.2500 (  1147 PWs)   bands (ev):

     0.2401   5.8053   8.0215   9.7254  19.2716

          k = 0.5000-0.5000 0.2500 (  1150 PWs)   bands (ev):

     1.6037   3.7894   7.6567   9.4750  19.3392

          k = 0.5000-0.6250 0.3750 (  1154 PWs)   bands (ev):

     1.9497   4.2653   6.0628   9.2020  21.1126

          k = 0.0000 0.0000 0.5000 (  1136 PWs)   bands (ev):

    -0.5940   8.8214   8.8214  11.3667  12.9218

          k = 0.0000-0.1250 0.6250 (  1150 PWs)   bands (ev):

     0.9121   6.3025   7.7240  11.2234  13.1103

          k = 0.0000 0.7500-0.2500 (  1152 PWs)   bands (ev):

     2.3429   4.3075   7.3522  11.4095  14.4143

          k =-0.1250 0.8750-0.2500 (  1154 PWs)   bands (ev):

     2.6571   4.9201   6.4953  11.5341  12.9577

          k = 0.5000-0.5000 0.5000 (  1160 PWs)   bands (ev):

     3.8907   3.8907   3.8907   8.7184  23.3921

          k = 0.0000 0.0000 0.7500 (  1144 PWs)   bands (ev):

     2.4835   6.6211   6.6211   9.0779  12.1870

          k = 0.0000 0.8750-0.1250 (  1154 PWs)   bands (ev):

     4.1629   5.1526   6.2478   9.5439  10.7862

          k = 0.0000 0.0000-1.0000 (  1144 PWs)   bands (ev):

     5.8741   5.8741   5.8741   8.3150  14.0305

     the Fermi energy is     0.6073 ev

!    total energy              =      -1.81089029 Ry
     Harris-Foulkes estimate   =      -1.81089029 Ry
     estimated scf accuracy    <          8.6E-10 Ry

     The total energy is the sum of the following terms:

     one-electron contribution =       0.41280588 Ry
     hartree contribution      =       0.00133135 Ry
     xc contribution           =      -1.67574344 Ry
     ewald contribution        =      -0.54865573 Ry
     smearing contrib. (-TS)   =      -0.00062835 Ry

     convergence has been achieved in   3 iterations

     Writing output data file li-bcc.save
 
     init_run     :      0.02s CPU      0.06s WALL (       1 calls)
     electrons    :      0.19s CPU      0.23s WALL (       1 calls)

     Called by init_run:
     wfcinit      :      0.01s CPU      0.03s WALL (       1 calls)
     potinit      :      0.00s CPU      0.00s WALL (       1 calls)

     Called by electrons:
     c_bands      :      0.17s CPU      0.19s WALL (       4 calls)
     sum_band     :      0.02s CPU      0.02s WALL (       4 calls)
     v_of_rho     :      0.00s CPU      0.01s WALL (       4 calls)
     newd         :      0.00s CPU      0.00s WALL (       4 calls)
     mix_rho      :      0.00s CPU      0.00s WALL (       4 calls)

     Called by c_bands:
     init_us_2    :      0.00s CPU      0.00s WALL (     261 calls)
     cegterg      :      0.16s CPU      0.17s WALL (     116 calls)

     Called by sum_band:
     sum_band:bec :      0.00s CPU      0.00s WALL (     116 calls)
     addusdens    :      0.00s CPU      0.00s WALL (       4 calls)

     Called by *egterg:
     h_psi        :      0.10s CPU      0.12s WALL (     542 calls)
     s_psi        :      0.00s CPU      0.00s WALL (     542 calls)
     g_psi        :      0.00s CPU      0.00s WALL (     397 calls)
     cdiaghg      :      0.04s CPU      0.05s WALL (     484 calls)

     Called by h_psi:
     h_psi:pot    :      0.10s CPU      0.12s WALL (     542 calls)
     h_psi:calbec :      0.01s CPU      0.01s WALL (     542 calls)
     vloc_psi     :      0.08s CPU      0.10s WALL (     542 calls)
     add_vuspsi   :      0.00s CPU      0.00s WALL (     542 calls)

     General routines
     calbec       :      0.01s CPU      0.01s WALL (     658 calls)
     fft          :      0.00s CPU      0.01s WALL (      54 calls)
     fftw         :      0.10s CPU      0.11s WALL (    4296 calls)
     davcio       :      0.00s CPU      0.00s WALL (      29 calls)
 
     Parallel routines
     fft_scatter  :      0.07s CPU      0.08s WALL (    4350 calls)
 
     PWSCF        :     0.31s CPU         2.21s WALL

 
   This run was terminated on:  16:17: 2  30Jan2020            

=------------------------------------------------------------------------------=
   JOB DONE.
=------------------------------------------------------------------------------=
