
     Program PWSCF v.6.1 (svn rev. 13369) starts on  1Feb2020 at 16: 6:28 

     This program is part of the open-source Quantum ESPRESSO suite
     for quantum simulation of materials; please cite
         "P. Giannozzi et al., J. Phys.:Condens. Matter 21 395502 (2009);
          URL http://www.quantum-espresso.org", 
     in publications or presentations arising from this work. More details at
     http://www.quantum-espresso.org/quote

     Parallel version (MPI), running on    36 processors
     R & G space division:  proc/nbgrp/npool/nimage =      36
     Waiting for input...
     Reading input from standard input

     Current dimensions of program PWSCF are:
     Max number of different atomic species (ntypx) = 10
     Max number of k-points (npk) =  40000
     Max angular momentum in pseudopotentials (lmaxx) =  3

     Subspace diagonalization in iterative solution of the eigenvalue problem:
     a serial algorithm will be used

 
     Parallelization info
     --------------------
     sticks:   dense  smooth     PW     G-vecs:    dense   smooth      PW
     Min          23      23      7                  465      465      75
     Max          24      24      8                  470      470      79
     Sum         859     859    253                16865    16865    2741
 


     bravais-lattice index     =            2
     lattice parameter (alat)  =      10.2600  a.u.
     unit-cell volume          =     270.0114 (a.u.)^3
     number of atoms/cell      =            2
     number of atomic types    =            1
     number of electrons       =         8.00
     number of Kohn-Sham states=            8
     kinetic-energy cutoff     =      60.0000  Ry
     charge density cutoff     =     240.0000  Ry
     convergence threshold     =      1.0E-07
     mixing beta               =       0.7000
     number of iterations used =            8  plain     mixing
     Exchange-correlation      =  SLA  PW   PBE  PBE ( 1  4  3  4 0 0)

     celldm(1)=  10.260000  celldm(2)=   0.000000  celldm(3)=   0.000000
     celldm(4)=   0.000000  celldm(5)=   0.000000  celldm(6)=   0.000000

     crystal axes: (cart. coord. in units of alat)
               a(1) = (  -0.500000   0.000000   0.500000 )  
               a(2) = (   0.000000   0.500000   0.500000 )  
               a(3) = (  -0.500000   0.500000   0.000000 )  

     reciprocal axes: (cart. coord. in units 2 pi/alat)
               b(1) = ( -1.000000 -1.000000  1.000000 )  
               b(2) = (  1.000000  1.000000  1.000000 )  
               b(3) = ( -1.000000  1.000000 -1.000000 )  


     PseudoPot. # 1 for Si read from file:
     ./Si.pbe-n-van.UPF
     MD5 check sum: 8a97496598b7338af554a5de8957bfee
     Pseudo is Ultrasoft + core correction, Zval =  4.0
     Generated by new atomic code, or converted to UPF format
     Using radial grid of  899 points,  6 beta functions with: 
                l(1) =   0
                l(2) =   0
                l(3) =   1
                l(4) =   1
                l(5) =   2
                l(6) =   2
     Q(r) pseudized with  8 coefficients,  rinner =    0.900   0.900   0.900
                                                       0.900   0.900

     atomic species   valence    mass     pseudopotential
        Si             4.00    28.08500     Si( 1.00)

     48 Sym. Ops., with inversion, found (24 have fractional translation)



   Cartesian axes

     site n.     atom                  positions (alat units)
         1           Si  tau(   1) = (  -0.7500000   0.7500000   0.7500000  )
         2           Si  tau(   2) = (   0.0000000   0.0000000   0.0000000  )

     number of k points=    29  gaussian smearing, width (Ry)=  0.0100
                       cart. coord. in units 2pi/alat
        k(    1) = (   0.0000000   0.0000000   0.0000000), wk =   0.0039062
        k(    2) = (  -0.1250000   0.1250000  -0.1250000), wk =   0.0312500
        k(    3) = (  -0.2500000   0.2500000  -0.2500000), wk =   0.0312500
        k(    4) = (  -0.3750000   0.3750000  -0.3750000), wk =   0.0312500
        k(    5) = (   0.5000000  -0.5000000   0.5000000), wk =   0.0156250
        k(    6) = (   0.0000000   0.2500000   0.0000000), wk =   0.0234375
        k(    7) = (  -0.1250000   0.3750000  -0.1250000), wk =   0.0937500
        k(    8) = (  -0.2500000   0.5000000  -0.2500000), wk =   0.0937500
        k(    9) = (   0.6250000  -0.3750000   0.6250000), wk =   0.0937500
        k(   10) = (   0.5000000  -0.2500000   0.5000000), wk =   0.0937500
        k(   11) = (   0.3750000  -0.1250000   0.3750000), wk =   0.0937500
        k(   12) = (   0.2500000   0.0000000   0.2500000), wk =   0.0468750
        k(   13) = (   0.0000000   0.5000000   0.0000000), wk =   0.0234375
        k(   14) = (  -0.1250000   0.6250000  -0.1250000), wk =   0.0937500
        k(   15) = (   0.7500000  -0.2500000   0.7500000), wk =   0.0937500
        k(   16) = (   0.6250000  -0.1250000   0.6250000), wk =   0.0937500
        k(   17) = (   0.5000000   0.0000000   0.5000000), wk =   0.0468750
        k(   18) = (   0.0000000   0.7500000   0.0000000), wk =   0.0234375
        k(   19) = (   0.8750000  -0.1250000   0.8750000), wk =   0.0937500
        k(   20) = (   0.7500000   0.0000000   0.7500000), wk =   0.0468750
        k(   21) = (   0.0000000  -1.0000000   0.0000000), wk =   0.0117188
        k(   22) = (  -0.2500000   0.5000000   0.0000000), wk =   0.0937500
        k(   23) = (   0.6250000  -0.3750000   0.8750000), wk =   0.1875000
        k(   24) = (   0.5000000  -0.2500000   0.7500000), wk =   0.0937500
        k(   25) = (   0.7500000  -0.2500000   1.0000000), wk =   0.0937500
        k(   26) = (   0.6250000  -0.1250000   0.8750000), wk =   0.1875000
        k(   27) = (   0.5000000   0.0000000   0.7500000), wk =   0.0937500
        k(   28) = (  -0.2500000  -1.0000000   0.0000000), wk =   0.0468750
        k(   29) = (  -0.5000000  -1.0000000   0.0000000), wk =   0.0234375

     Dense  grid:    16865 G-vectors     FFT dimensions: (  36,  36,  36)

     Estimated max dynamical RAM per process >       0.61MB

     Estimated total allocated dynamical RAM >      22.10MB

     Initial potential from superposition of free atoms

     starting charge    7.99866, renormalised to    8.00000
     Starting wfc are    8 randomized atomic wfcs

     total cpu time spent up to now is        3.0 secs

     per-process dynamical memory:    27.4 Mb

     Self-consistent Calculation

     iteration #  1     ecut=    60.00 Ry     beta=0.70
     Davidson diagonalization with overlap
     ethr =  1.00E-02,  avg # of iterations =  3.5

     Threshold (ethr) on eigenvalues was too large:
     Diagonalizing with lowered threshold

     Davidson diagonalization with overlap
     ethr =  7.17E-04,  avg # of iterations =  1.1

     total cpu time spent up to now is        3.2 secs

     total energy              =     -19.19007767 Ry
     Harris-Foulkes estimate   =     -19.20381689 Ry
     estimated scf accuracy    <       0.05656350 Ry

     iteration #  2     ecut=    60.00 Ry     beta=0.70
     Davidson diagonalization with overlap
     ethr =  7.07E-04,  avg # of iterations =  1.0

     total cpu time spent up to now is        3.3 secs

     total energy              =     -19.19248344 Ry
     Harris-Foulkes estimate   =     -19.19257442 Ry
     estimated scf accuracy    <       0.00212194 Ry

     iteration #  3     ecut=    60.00 Ry     beta=0.70
     Davidson diagonalization with overlap
     ethr =  2.65E-05,  avg # of iterations =  2.2

     total cpu time spent up to now is        3.4 secs

     total energy              =     -19.19264600 Ry
     Harris-Foulkes estimate   =     -19.19263893 Ry
     estimated scf accuracy    <       0.00004171 Ry

     iteration #  4     ecut=    60.00 Ry     beta=0.70
     Davidson diagonalization with overlap
     ethr =  5.21E-07,  avg # of iterations =  3.4

     total cpu time spent up to now is        3.5 secs

     total energy              =     -19.19269340 Ry
     Harris-Foulkes estimate   =     -19.19269325 Ry
     estimated scf accuracy    <       0.00000013 Ry

     iteration #  5     ecut=    60.00 Ry     beta=0.70
     Davidson diagonalization with overlap
     ethr =  1.64E-09,  avg # of iterations =  3.2

     total cpu time spent up to now is        3.6 secs

     End of self-consistent calculation

          k = 0.0000 0.0000 0.0000 (  2085 PWs)   bands (ev):

    -5.7613   6.2021   6.2021   6.2021   8.7681   8.7681   8.7681   9.5752

          k =-0.1250 0.1250-0.1250 (  2112 PWs)   bands (ev):

    -5.5570   4.6039   5.9129   5.9129   8.7082   9.1928   9.1928  10.9194

          k =-0.2500 0.2500-0.2500 (  2106 PWs)   bands (ev):

    -4.9612   2.2752   5.4419   5.4419   8.2357   9.7118   9.7118  13.1264

          k =-0.3750 0.3750-0.3750 (  2114 PWs)   bands (ev):

    -4.0671   0.2546   5.1146   5.1146   7.8727   9.6578   9.6578  14.0886

          k = 0.5000-0.5000 0.5000 (  2120 PWs)   bands (ev):

    -3.4289  -0.7682   5.0026   5.0026   7.7448   9.5469   9.5469  13.9338

          k = 0.0000 0.2500 0.0000 (  2105 PWs)   bands (ev):

    -5.4882   4.8694   5.3951   5.3951   8.2167   9.9091   9.9092  10.6060

          k =-0.1250 0.3750-0.1250 (  2106 PWs)   bands (ev):

    -5.0193   2.9785   4.8831   4.9597   8.3533   9.9149  10.6742  10.9589

          k =-0.2500 0.5000-0.2500 (  2116 PWs)   bands (ev):

    -4.2041   0.9173   4.3681   4.6148   8.4536   9.8486  10.6714  11.6756

          k = 0.6250-0.3750 0.6250 (  2115 PWs)   bands (ev):

    -3.3422  -0.5467   3.9222   4.6392   8.4008   9.7218  10.3077  13.5778

          k = 0.5000-0.2500 0.5000 (  2110 PWs)   bands (ev):

    -3.5869  -0.1759   3.7404   4.9358   8.5675   9.8302  10.0754  14.1235

          k = 0.3750-0.1250 0.3750 (  2111 PWs)   bands (ev):

    -4.5105   1.5767   3.8912   5.4276   8.9261   9.8832  10.0631  12.5063

          k = 0.2500 0.0000 0.2500 (  2111 PWs)   bands (ev):

    -5.2207   3.5189   4.5734   5.9090   9.2493   9.3293   9.5653  11.7574

          k = 0.0000 0.5000 0.0000 (  2085 PWs)   bands (ev):

    -4.6788   2.6860   4.3116   4.3116   7.3354   9.3406  11.9637  11.9637

          k =-0.1250 0.6250-0.1250 (  2114 PWs)   bands (ev):

    -3.9685   1.2618   3.5311   3.9933   7.5564   9.1017  12.2052  12.4763

          k = 0.7500-0.2500 0.7500 (  2123 PWs)   bands (ev):

    -3.0421  -0.1808   2.6676   3.9964   7.7263  10.6554  11.9529  12.1269

          k = 0.6250-0.1250 0.6250 (  2122 PWs)   bands (ev):

    -2.8377  -0.4393   2.2090   4.3149   8.0509  11.6727  11.6874  13.1677

          k = 0.5000 0.0000 0.5000 (  2119 PWs)   bands (ev):

    -3.7166   0.7220   2.4491   4.8736   8.6567  10.9959  11.3404  12.3543

          k = 0.0000 0.7500 0.0000 (  2104 PWs)   bands (ev):

    -3.3658   0.4571   3.5947   3.5947   6.8208   7.7465  14.2483  14.2484

          k = 0.8750-0.1250 0.8750 (  2125 PWs)   bands (ev):

    -2.4681  -0.6283   2.7658   3.5185   7.1006   8.1736  14.4738  14.5625

          k = 0.7500 0.0000 0.7500 (  2129 PWs)   bands (ev):

    -2.0291  -1.0251   1.8997   3.7762   7.4102  10.3356  13.6765  14.2220

          k = 0.0000-1.0000 0.0000 (  2100 PWs)   bands (ev):

    -1.6153  -1.6153   3.3489   3.3489   6.9159   6.9159  16.3180  16.3181

          k =-0.2500 0.5000 0.0000 (  2111 PWs)   bands (ev):

    -4.4313   1.9132   3.4887   4.7741   8.6531  10.1098  10.4015  11.7086

          k = 0.6250-0.3750 0.8750 (  2115 PWs)   bands (ev):

    -3.5426   0.3606   2.8809   4.2724   9.0838   9.7611  11.2267  12.1440

          k = 0.5000-0.2500 0.7500 (  2132 PWs)   bands (ev):

    -2.8899  -0.5848   2.7521   4.0426   9.2743   9.3386  12.1191  13.3264

          k = 0.7500-0.2500 1.0000 (  2120 PWs)   bands (ev):

    -3.1671   0.2381   2.8394   3.4424   8.1529   8.8533  11.9616  14.1977

          k = 0.6250-0.1250 0.8750 (  2132 PWs)   bands (ev):

    -2.2919  -0.7302   2.1412   3.2416   8.5948  10.4880  11.4844  13.6473

          k = 0.5000 0.0000 0.7500 (  2128 PWs)   bands (ev):

    -2.6427  -0.3669   1.9743   3.6177   9.0748  10.7514  11.4226  13.2376

          k =-0.2500-1.0000 0.0000 (  2128 PWs)   bands (ev):

    -1.5372  -1.5372   2.7849   2.7849   8.1768   8.1768  14.0544  14.0544

          k =-0.5000-1.0000 0.0000 (  2148 PWs)   bands (ev):

    -1.4513  -1.4513   2.3489   2.3489  10.4762  10.4762  11.2105  11.2105

     the Fermi energy is     6.5016 ev

!    total energy              =     -19.19269353 Ry
     Harris-Foulkes estimate   =     -19.19269352 Ry
     estimated scf accuracy    <          4.0E-09 Ry

     The total energy is the sum of the following terms:

     one-electron contribution =       5.11656318 Ry
     hartree contribution      =       1.11680783 Ry
     xc contribution           =      -8.62513442 Ry
     ewald contribution        =     -16.80092958 Ry
     smearing contrib. (-TS)   =      -0.00000054 Ry

     convergence has been achieved in   5 iterations

     Writing output data file si-fcc.save
 
     init_run     :      0.06s CPU      1.22s WALL (       1 calls)
     electrons    :      0.51s CPU      0.61s WALL (       1 calls)

     Called by init_run:
     wfcinit      :      0.03s CPU      0.22s WALL (       1 calls)
     potinit      :      0.00s CPU      0.08s WALL (       1 calls)

     Called by electrons:
     c_bands      :      0.42s CPU      0.47s WALL (       6 calls)
     sum_band     :      0.07s CPU      0.07s WALL (       6 calls)
     v_of_rho     :      0.01s CPU      0.01s WALL (       6 calls)
     newd         :      0.01s CPU      0.07s WALL (       6 calls)
     mix_rho      :      0.00s CPU      0.00s WALL (       6 calls)

     Called by c_bands:
     init_us_2    :      0.01s CPU      0.01s WALL (     377 calls)
     cegterg      :      0.37s CPU      0.39s WALL (     174 calls)

     Called by sum_band:
     sum_band:bec :      0.00s CPU      0.00s WALL (     174 calls)
     addusdens    :      0.01s CPU      0.01s WALL (       6 calls)

     Called by *egterg:
     h_psi        :      0.24s CPU      0.31s WALL (     624 calls)
     s_psi        :      0.00s CPU      0.01s WALL (     624 calls)
     g_psi        :      0.00s CPU      0.00s WALL (     421 calls)
     cdiaghg      :      0.10s CPU      0.22s WALL (     566 calls)

     Called by h_psi:
     h_psi:pot    :      0.24s CPU      0.30s WALL (     624 calls)
     h_psi:calbec :      0.02s CPU      0.04s WALL (     624 calls)
     vloc_psi     :      0.21s CPU      0.25s WALL (     624 calls)
     add_vuspsi   :      0.00s CPU      0.01s WALL (     624 calls)

     General routines
     calbec       :      0.03s CPU      0.05s WALL (     798 calls)
     fft          :      0.01s CPU      0.69s WALL (      80 calls)
     fftw         :      0.24s CPU      0.28s WALL (    9158 calls)
     davcio       :      0.00s CPU      0.00s WALL (      29 calls)
 
     Parallel routines
     fft_scatter  :      0.15s CPU      0.18s WALL (    9238 calls)
 
     PWSCF        :     0.73s CPU         3.96s WALL

 
   This run was terminated on:  16: 6:31   1Feb2020            

=------------------------------------------------------------------------------=
   JOB DONE.
=------------------------------------------------------------------------------=
