
     Program PWSCF v.6.1 (svn rev. 13369) starts on  6Apr2020 at 16:21: 1 

     This program is part of the open-source Quantum ESPRESSO suite
     for quantum simulation of materials; please cite
         "P. Giannozzi et al., J. Phys.:Condens. Matter 21 395502 (2009);
          URL http://www.quantum-espresso.org", 
     in publications or presentations arising from this work. More details at
     http://www.quantum-espresso.org/quote

     Parallel version (MPI), running on    36 processors
     R & G space division:  proc/nbgrp/npool/nimage =      36
     Waiting for input...
     Reading input from standard input
     Message from routine read_cards :
     DEPRECATED: no units specified in ATOMIC_POSITIONS card
     Message from routine read_cards :
     ATOMIC_POSITIONS: units set to alat

     Current dimensions of program PWSCF are:
     Max number of different atomic species (ntypx) = 10
     Max number of k-points (npk) =  40000
     Max angular momentum in pseudopotentials (lmaxx) =  3

     Subspace diagonalization in iterative solution of the eigenvalue problem:
     a serial algorithm will be used

     Found symmetry operation: I + ( -0.5000 -0.5000 -0.5000)
     This is a supercell, fractional translations are disabled
 
     Parallelization info
     --------------------
     sticks:   dense  smooth     PW     G-vecs:    dense   smooth      PW
     Min           8       8      2                  108      108      20
     Max           9       9      3                  113      113      23
     Sum         293     293    101                 3911     3911     799
 


     bravais-lattice index     =            1
     lattice parameter (alat)  =       5.6390  a.u.
     unit-cell volume          =     179.3107 (a.u.)^3
     number of atoms/cell      =            8
     number of atomic types    =            2
     number of electrons       =        18.00
     number of Kohn-Sham states=           13
     kinetic-energy cutoff     =      30.0000  Ry
     charge density cutoff     =     120.0000  Ry
     convergence threshold     =      1.0E-08
     mixing beta               =       0.7000
     number of iterations used =            8  plain     mixing
     Exchange-correlation      =  SLA  PW   PBE  PBE ( 1  4  3  4 0 0)

     celldm(1)=   5.639000  celldm(2)=   0.000000  celldm(3)=   0.000000
     celldm(4)=   0.000000  celldm(5)=   0.000000  celldm(6)=   0.000000

     crystal axes: (cart. coord. in units of alat)
               a(1) = (   1.000000   0.000000   0.000000 )  
               a(2) = (   0.000000   1.000000   0.000000 )  
               a(3) = (   0.000000   0.000000   1.000000 )  

     reciprocal axes: (cart. coord. in units 2 pi/alat)
               b(1) = (  1.000000  0.000000  0.000000 )  
               b(2) = (  0.000000  1.000000  0.000000 )  
               b(3) = (  0.000000  0.000000  1.000000 )  


     PseudoPot. # 1 for H  read from file:
     ./H.pbe-van_bm.UPF
     MD5 check sum: b5ee9d7bfd3a09ee7748110bda690ff7
     Pseudo is Ultrasoft, Zval =  1.0
     Generated by new atomic code, or converted to UPF format
     Using radial grid of  615 points,  1 beta functions with: 
                l(1) =   0
     Q(r) pseudized with  8 coefficients,  rinner =    0.800

     PseudoPot. # 2 for S  read from file:
     ./S.pbe-van_bm.UPF
     MD5 check sum: 5981569f150ce26f656387b858196b6a
     Pseudo is Ultrasoft, Zval =  6.0
     Generated by new atomic code, or converted to UPF format
     Using radial grid of  811 points,  6 beta functions with: 
                l(1) =   0
                l(2) =   0
                l(3) =   1
                l(4) =   1
                l(5) =   2
                l(6) =   2
     Q(r) pseudized with  8 coefficients,  rinner =    1.100   1.100   1.100
                                                       1.100   1.100

     atomic species   valence    mass     pseudopotential
        H              1.00     1.00800     H ( 1.00)
        S              6.00    32.06000     S ( 1.00)

     48 Sym. Ops., with inversion, found



   Cartesian axes

     site n.     atom                  positions (alat units)
         1           S   tau(   1) = (   0.0000000   0.0000000   0.0000000  )
         2           S   tau(   2) = (   0.5000000   0.5000000   0.5000000  )
         3           H   tau(   3) = (   0.5000000   0.0000000   0.0000000  )
         4           H   tau(   4) = (   0.0000000   0.5000000   0.0000000  )
         5           H   tau(   5) = (   0.0000000   0.0000000   0.5000000  )
         6           H   tau(   6) = (   0.5000000   0.0000000   0.5000000  )
         7           H   tau(   7) = (   0.5000000   0.5000000   0.0000000  )
         8           H   tau(   8) = (   0.0000000   0.5000000   0.5000000  )

     number of k points=    35  gaussian smearing, width (Ry)=  0.0500
                       cart. coord. in units 2pi/alat
        k(    1) = (   0.0000000   0.0000000   0.0000000), wk =   0.0039062
        k(    2) = (   0.0000000   0.0000000   0.1250000), wk =   0.0234375
        k(    3) = (   0.0000000   0.0000000   0.2500000), wk =   0.0234375
        k(    4) = (   0.0000000   0.0000000   0.3750000), wk =   0.0234375
        k(    5) = (   0.0000000   0.0000000  -0.5000000), wk =   0.0117188
        k(    6) = (   0.0000000   0.1250000   0.1250000), wk =   0.0468750
        k(    7) = (   0.0000000   0.1250000   0.2500000), wk =   0.0937500
        k(    8) = (   0.0000000   0.1250000   0.3750000), wk =   0.0937500
        k(    9) = (   0.0000000   0.1250000  -0.5000000), wk =   0.0468750
        k(   10) = (   0.0000000   0.2500000   0.2500000), wk =   0.0468750
        k(   11) = (   0.0000000   0.2500000   0.3750000), wk =   0.0937500
        k(   12) = (   0.0000000   0.2500000  -0.5000000), wk =   0.0468750
        k(   13) = (   0.0000000   0.3750000   0.3750000), wk =   0.0468750
        k(   14) = (   0.0000000   0.3750000  -0.5000000), wk =   0.0468750
        k(   15) = (   0.0000000  -0.5000000  -0.5000000), wk =   0.0117188
        k(   16) = (   0.1250000   0.1250000   0.1250000), wk =   0.0312500
        k(   17) = (   0.1250000   0.1250000   0.2500000), wk =   0.0937500
        k(   18) = (   0.1250000   0.1250000   0.3750000), wk =   0.0937500
        k(   19) = (   0.1250000   0.1250000  -0.5000000), wk =   0.0468750
        k(   20) = (   0.1250000   0.2500000   0.2500000), wk =   0.0937500
        k(   21) = (   0.1250000   0.2500000   0.3750000), wk =   0.1875000
        k(   22) = (   0.1250000   0.2500000  -0.5000000), wk =   0.0937500
        k(   23) = (   0.1250000   0.3750000   0.3750000), wk =   0.0937500
        k(   24) = (   0.1250000   0.3750000  -0.5000000), wk =   0.0937500
        k(   25) = (   0.1250000  -0.5000000  -0.5000000), wk =   0.0234375
        k(   26) = (   0.2500000   0.2500000   0.2500000), wk =   0.0312500
        k(   27) = (   0.2500000   0.2500000   0.3750000), wk =   0.0937500
        k(   28) = (   0.2500000   0.2500000  -0.5000000), wk =   0.0468750
        k(   29) = (   0.2500000   0.3750000   0.3750000), wk =   0.0937500
        k(   30) = (   0.2500000   0.3750000  -0.5000000), wk =   0.0937500
        k(   31) = (   0.2500000  -0.5000000  -0.5000000), wk =   0.0234375
        k(   32) = (   0.3750000   0.3750000   0.3750000), wk =   0.0312500
        k(   33) = (   0.3750000   0.3750000  -0.5000000), wk =   0.0468750
        k(   34) = (   0.3750000  -0.5000000  -0.5000000), wk =   0.0234375
        k(   35) = (  -0.5000000  -0.5000000  -0.5000000), wk =   0.0039062

     Dense  grid:     3911 G-vectors     FFT dimensions: (  20,  20,  20)

     Estimated max dynamical RAM per process >       0.29MB

     Estimated total allocated dynamical RAM >      10.34MB
     Message from routine sym_rho_init:
     some processors have no G-vectors for symmetrization
     Message from routine sym_rho_init:
     some processors have no G-vectors for symmetrization
     Message from routine sym_rho_init:
     some processors have no G-vectors for symmetrization
     Message from routine sym_rho_init:
     some processors have no G-vectors for symmetrization
     Message from routine sym_rho_init:
     some processors have no G-vectors for symmetrization

     Initial potential from superposition of free atoms

     starting charge   17.99989, renormalised to   18.00000
     Starting wfc are   14 randomized atomic wfcs

     total cpu time spent up to now is        1.8 secs

     per-process dynamical memory:    25.7 Mb

     Self-consistent Calculation

     iteration #  1     ecut=    30.00 Ry     beta=0.70
     Davidson diagonalization with overlap
     ethr =  1.00E-02,  avg # of iterations =  3.9

     Threshold (ethr) on eigenvalues was too large:
     Diagonalizing with lowered threshold

     Davidson diagonalization with overlap
     ethr =  4.15E-04,  avg # of iterations =  1.5

     total cpu time spent up to now is        2.2 secs

     total energy              =     -46.90195956 Ry
     Harris-Foulkes estimate   =     -46.91561800 Ry
     estimated scf accuracy    <       0.07437125 Ry

     iteration #  2     ecut=    30.00 Ry     beta=0.70
     Davidson diagonalization with overlap
     ethr =  4.13E-04,  avg # of iterations =  1.1

     total cpu time spent up to now is        2.3 secs

     total energy              =     -46.90459147 Ry
     Harris-Foulkes estimate   =     -46.90489101 Ry
     estimated scf accuracy    <       0.00451234 Ry

     iteration #  3     ecut=    30.00 Ry     beta=0.70
     Davidson diagonalization with overlap
     ethr =  2.51E-05,  avg # of iterations =  1.7

     total cpu time spent up to now is        2.4 secs

     total energy              =     -46.90470618 Ry
     Harris-Foulkes estimate   =     -46.90470730 Ry
     estimated scf accuracy    <       0.00008030 Ry

     iteration #  4     ecut=    30.00 Ry     beta=0.70
     Davidson diagonalization with overlap
     ethr =  4.46E-07,  avg # of iterations =  2.8

     total cpu time spent up to now is        2.5 secs

     total energy              =     -46.90471910 Ry
     Harris-Foulkes estimate   =     -46.90471903 Ry
     estimated scf accuracy    <       0.00000076 Ry

     iteration #  5     ecut=    30.00 Ry     beta=0.70
     Davidson diagonalization with overlap
     ethr =  4.20E-09,  avg # of iterations =  2.4

     total cpu time spent up to now is        2.7 secs

     total energy              =     -46.90471933 Ry
     Harris-Foulkes estimate   =     -46.90471935 Ry
     estimated scf accuracy    <       0.00000004 Ry

     iteration #  6     ecut=    30.00 Ry     beta=0.70
     Davidson diagonalization with overlap
     ethr =  2.24E-10,  avg # of iterations =  2.0

     total cpu time spent up to now is        2.8 secs

     End of self-consistent calculation

          k = 0.0000 0.0000 0.0000 (   485 PWs)   bands (ev):

    -7.6021   4.7977   7.8199   7.8199   9.3553   9.3553   9.3553  18.4903
    18.4903  18.4903  18.7647  18.7647  25.5692

          k = 0.0000 0.0000 0.1250 (   478 PWs)   bands (ev):

    -7.3530   3.7587   6.4292   8.0599   9.5762   9.5762  12.4020  16.1933
    17.8269  17.8854  17.8854  20.4787  26.0386

          k = 0.0000 0.0000 0.2500 (   494 PWs)   bands (ev):

    -6.6100   1.0902   6.7582   8.7772  10.2338  10.2338  13.6761  15.7840
    16.3629  16.3629  16.5198  21.7353  26.1376

          k = 0.0000 0.0000 0.3750 (   498 PWs)   bands (ev):

    -5.3769  -1.4887   7.8401   9.9588  11.3107  11.3107  11.3681  13.5687
    14.5171  14.5171  20.5694  22.7571  26.9440

          k = 0.0000 0.0000-0.5000 (   482 PWs)   bands (ev):

    -3.6627  -3.6627   9.3997   9.3997  11.5776  11.5776  12.7674  12.7674
    12.7675  12.7675  22.9830  22.9830  28.3549

          k = 0.0000 0.1250 0.1250 (   483 PWs)   bands (ev):

    -7.1052   3.5566   5.0958   7.4706   9.7954  12.1473  13.0203  14.9115
    16.1462  17.4923  18.5675  21.3715  24.6400

          k = 0.0000 0.1250 0.2500 (   494 PWs)   bands (ev):

    -6.3627   1.3072   5.1198   8.0801  10.4476  12.2866  13.1014  14.6366
    16.2970  16.7802  17.8397  21.9815  24.0610

          k = 0.0000 0.1250 0.3750 (   500 PWs)   bands (ev):

    -5.1307  -1.2494   6.2260   9.2107   9.8718  11.5121  12.6503  14.1304
    14.6224  16.7955  20.6528  22.0710  24.5867

          k = 0.0000 0.1250-0.5000 (   486 PWs)   bands (ev):

    -3.4187  -3.4187   7.8322   7.8322  10.7653  10.7654  12.9408  12.9408
    15.4326  15.4326  22.3522  22.3522  25.9027

          k = 0.0000 0.2500 0.2500 (   507 PWs)   bands (ev):

    -5.6223   1.5833   2.6807   8.6362   9.5986  11.0803  14.2031  15.8847
    16.1279  17.2415  18.2363  22.4630  24.2158

          k = 0.0000 0.2500 0.3750 (   502 PWs)   bands (ev):

    -4.3938  -0.5446   3.3961   7.1118   9.7273  12.0992  12.8930  14.8288
    17.0895  17.1102  21.3751  22.2663  23.6719

          k = 0.0000 0.2500-0.5000 (   496 PWs)   bands (ev):

    -2.6895  -2.6895   5.0214   5.0214  11.2075  11.2075  13.4200  13.4200
    17.3333  17.3334  22.6820  22.6820  23.2673

          k = 0.0000 0.3750 0.3750 (   503 PWs)   bands (ev):

    -3.1738   0.2508   1.2170   4.5801  10.7459  12.9793  13.0038  14.7512
    16.1513  17.4238  21.0393  22.8113  24.2784

          k = 0.0000 0.3750-0.5000 (   506 PWs)   bands (ev):

    -1.4939  -1.4939   2.4740   2.4740  12.0256  12.0256  14.0335  14.0335
    16.5025  16.5025  21.3245  21.3245  26.2241

          k = 0.0000-0.5000-0.5000 (   500 PWs)   bands (ev):

    -0.2058  -0.2058   0.7283   0.7283  12.5629  12.5629  14.3563  14.3563
    15.7555  15.7556  20.5545  20.5545  30.4261

          k = 0.1250 0.1250 0.1250 (   491 PWs)   bands (ev):

    -6.8575   3.4723   5.3320   5.3320  11.7327  13.2417  13.2417  14.8350
    15.1307  15.1307  20.9191  20.9191  25.3082

          k = 0.1250 0.1250 0.2500 (   497 PWs)   bands (ev):

    -6.1154   1.5229   4.9839   6.0382  12.1613  12.5548  13.0136  13.8993
    15.1951  17.0262  19.7131  21.9618  24.7678

          k = 0.1250 0.1250 0.3750 (   494 PWs)   bands (ev):

    -4.8844  -1.0104   6.0573   7.2035   9.7118  10.7832  13.4448  14.9702
    15.0911  18.0675  20.6179  21.3290  25.0839

          k = 0.1250 0.1250-0.5000 (   496 PWs)   bands (ev):

    -3.1750  -3.1750   7.6609   7.6609   8.8030   8.8030  14.4162  14.4163
    16.3998  16.3999  21.3797  21.3797  26.2258

          k = 0.1250 0.2500 0.2500 (   501 PWs)   bands (ev):

    -5.3756   1.7952   2.9188   6.2577   9.7973  13.0383  13.2036  13.4179
    16.5471  18.4449  20.1848  23.4606  24.3956

          k = 0.1250 0.2500 0.3750 (   491 PWs)   bands (ev):

    -4.1484  -0.3064   3.6190   7.3247   7.3825  10.9163  13.7885  14.0485
    17.4913  19.2393  21.1438  22.7324  23.8694

          k = 0.1250 0.2500-0.5000 (   500 PWs)   bands (ev):

    -2.4465  -2.4465   5.2396   5.2396   8.9595   8.9595  14.2588  14.2589
    18.1739  18.1739  21.8265  21.8265  25.3045

          k = 0.1250 0.3750 0.3750 (   504 PWs)   bands (ev):

    -2.9297   0.4875   1.4560   4.8100   8.4763  11.7381  11.9773  13.9297
    18.0113  19.2828  22.5134  23.3369  24.4605

          k = 0.1250 0.3750-0.5000 (   512 PWs)   bands (ev):

    -1.2521  -1.2520   2.7089   2.7089  10.0012  10.0012  13.0187  13.0187
    18.5971  18.5971  22.7559  22.7559  26.5595

          k = 0.1250-0.5000-0.5000 (   508 PWs)   bands (ev):

     0.0342   0.0342   0.9668   0.9668  11.2981  11.2981  11.5541  11.5542
    18.9343  18.9344  22.1010  22.1010  30.5709

          k = 0.2500 0.2500 0.2500 (   489 PWs)   bands (ev):

    -4.6374   2.1640   3.6301   3.6301   9.9501  10.7591  10.7591  14.6291
    19.0594  19.0594  22.4479  23.4901  23.4902

          k = 0.2500 0.2500 0.3750 (   497 PWs)   bands (ev):

    -3.4143   0.3940   3.9771   4.8055   7.6552   8.4455  11.5192  14.0032
    20.0368  21.3009  22.5583  23.6553  23.8628

          k = 0.2500 0.2500-0.5000 (   496 PWs)   bands (ev):

    -1.7203  -1.7203   5.5727   5.5728   6.4251   6.4251  12.7657  12.7657
    21.2769  21.2769  22.2357  22.2357  27.0835

          k = 0.2500 0.3750 0.3750 (   501 PWs)   bands (ev):

    -2.1994   1.1809   2.1702   5.4833   5.5963   9.0247   9.3792  12.3971
    21.3762  23.2683  24.2321  24.9826  25.3284

          k = 0.2500 0.3750-0.5000 (   496 PWs)   bands (ev):

    -0.5297  -0.5297   3.4043   3.4043   7.1852   7.1852  10.6728  10.6728
    22.4776  22.4776  25.0589  25.0589  27.7198

          k = 0.2500-0.5000-0.5000 (   504 PWs)   bands (ev):

     0.7488   0.7488   1.6822   1.6822   8.5702   8.5703   8.9153   8.9153
    23.0344  23.0344  25.1983  25.1983  30.9490

          k = 0.3750 0.3750 0.3750 (   492 PWs)   bands (ev):

    -0.9929   2.0457   3.3518   3.3518   6.0692   7.0243   7.0243  10.2595
    25.2116  25.7582  25.7582  26.9292  26.9292

          k = 0.3750 0.3750-0.5000 (   502 PWs)   bands (ev):

     0.6509   0.6509   4.2513   4.2513   4.9826   4.9827   8.3326   8.3326
    26.5736  26.5737  26.6304  26.6304  29.2239

          k = 0.3750-0.5000-0.5000 (   504 PWs)   bands (ev):

     1.8995   1.8996   2.8654   2.8654   6.0405   6.0405   6.5480   6.5480
    27.3582  27.3582  28.3083  28.3084  31.2848

          k =-0.5000-0.5000-0.5000 (   480 PWs)   bands (ev):

     2.9785   2.9785   4.5003   4.5003   4.5003   4.5003   4.5003   4.5003
    30.5938  30.5938  30.5939  30.5939  30.5939

     the Fermi energy is    17.6922 ev

!    total energy              =     -46.90471934 Ry
     Harris-Foulkes estimate   =     -46.90471934 Ry
     estimated scf accuracy    <          1.4E-10 Ry

     The total energy is the sum of the following terms:

     one-electron contribution =      27.43283346 Ry
     hartree contribution      =       1.02378003 Ry
     xc contribution           =     -14.90144386 Ry
     ewald contribution        =     -60.44517315 Ry
     smearing contrib. (-TS)   =      -0.01471582 Ry

     convergence has been achieved in   6 iterations

     Forces acting on atoms (cartesian axes, Ry/au):

     atom    1 type  2   force =     0.00000000    0.00000000    0.00000000
     atom    2 type  2   force =     0.00000000    0.00000000    0.00000000
     atom    3 type  1   force =     0.00000000    0.00000000   -0.00000000
     atom    4 type  1   force =     0.00000000    0.00000000    0.00000000
     atom    5 type  1   force =     0.00000000   -0.00000000    0.00000000
     atom    6 type  1   force =     0.00000000    0.00000000    0.00000000
     atom    7 type  1   force =     0.00000000    0.00000000    0.00000000
     atom    8 type  1   force =     0.00000000    0.00000000    0.00000000

     Total force =     0.000000     Total SCF correction =     0.000000


     Computing stress (Cartesian axis) and pressure

          total   stress  (Ry/bohr**3)                   (kbar)     P= 2012.48
   0.01368054   0.00000000   0.00000000       2012.48      0.00      0.00
   0.00000000   0.01368054   0.00000000          0.00   2012.48      0.00
   0.00000000   0.00000000   0.01368054          0.00      0.00   2012.48


     Writing output data file h3s-im-3m.save
 
     init_run     :      0.07s CPU      0.61s WALL (       1 calls)
     electrons    :      0.81s CPU      0.98s WALL (       1 calls)
     forces       :      0.03s CPU      0.13s WALL (       1 calls)
     stress       :      0.04s CPU      0.04s WALL (       1 calls)

     Called by init_run:
     wfcinit      :      0.04s CPU      0.22s WALL (       1 calls)
     potinit      :      0.01s CPU      0.02s WALL (       1 calls)

     Called by electrons:
     c_bands      :      0.71s CPU      0.84s WALL (       7 calls)
     sum_band     :      0.09s CPU      0.10s WALL (       7 calls)
     v_of_rho     :      0.00s CPU      0.01s WALL (       7 calls)
     newd         :      0.00s CPU      0.02s WALL (       7 calls)
     mix_rho      :      0.00s CPU      0.01s WALL (       7 calls)

     Called by c_bands:
     init_us_2    :      0.00s CPU      0.01s WALL (     595 calls)
     cegterg      :      0.69s CPU      0.77s WALL (     245 calls)

     Called by sum_band:
     sum_band:bec :      0.00s CPU      0.00s WALL (     245 calls)
     addusdens    :      0.00s CPU      0.00s WALL (       7 calls)

     Called by *egterg:
     h_psi        :      0.36s CPU      0.42s WALL (     820 calls)
     s_psi        :      0.01s CPU      0.01s WALL (     820 calls)
     g_psi        :      0.00s CPU      0.00s WALL (     540 calls)
     cdiaghg      :      0.25s CPU      0.44s WALL (     750 calls)

     Called by h_psi:
     h_psi:pot    :      0.35s CPU      0.42s WALL (     820 calls)
     h_psi:calbec :      0.04s CPU      0.05s WALL (     820 calls)
     vloc_psi     :      0.29s CPU      0.34s WALL (     820 calls)
     add_vuspsi   :      0.01s CPU      0.02s WALL (     820 calls)

     General routines
     calbec       :      0.08s CPU      0.09s WALL (    1240 calls)
     fft          :      0.01s CPU      0.22s WALL (     101 calls)
     fftw         :      0.33s CPU      0.39s WALL (   19593 calls)
     davcio       :      0.00s CPU      0.00s WALL (      35 calls)
 
     Parallel routines
     fft_scatter  :      0.27s CPU      0.30s WALL (   19694 calls)
 
     PWSCF        :     1.12s CPU         3.61s WALL

 
   This run was terminated on:  16:21: 4   6Apr2020            

=------------------------------------------------------------------------------=
   JOB DONE.
=------------------------------------------------------------------------------=
