
     Program PWSCF v.6.1 (svn rev. 13369) starts on  2Apr2020 at 10:41:30 

     This program is part of the open-source Quantum ESPRESSO suite
     for quantum simulation of materials; please cite
         "P. Giannozzi et al., J. Phys.:Condens. Matter 21 395502 (2009);
          URL http://www.quantum-espresso.org", 
     in publications or presentations arising from this work. More details at
     http://www.quantum-espresso.org/quote

     Parallel version (MPI), running on    36 processors
     R & G space division:  proc/nbgrp/npool/nimage =      36
     Waiting for input...
     Reading input from standard input
     Message from routine read_cards :
     DEPRECATED: no units specified in ATOMIC_POSITIONS card
     Message from routine read_cards :
     ATOMIC_POSITIONS: units set to alat

     Current dimensions of program PWSCF are:
     Max number of different atomic species (ntypx) = 10
     Max number of k-points (npk) =  40000
     Max angular momentum in pseudopotentials (lmaxx) =  3

     Subspace diagonalization in iterative solution of the eigenvalue problem:
     a serial algorithm will be used

     Found symmetry operation: I + ( -0.5000 -0.5000 -0.5000)
     This is a supercell, fractional translations are disabled
 
     Parallelization info
     --------------------
     sticks:   dense  smooth     PW     G-vecs:    dense   smooth      PW
     Min           8       8      2                  108      108      18
     Max           9       9      3                  113      113      23
     Sum         293     293     97                 3911     3911     739
 


     bravais-lattice index     =            1
     lattice parameter (alat)  =       5.6390  a.u.
     unit-cell volume          =     179.3107 (a.u.)^3
     number of atoms/cell      =            8
     number of atomic types    =            2
     number of electrons       =        18.00
     number of Kohn-Sham states=           13
     kinetic-energy cutoff     =      30.0000  Ry
     charge density cutoff     =     120.0000  Ry
     convergence threshold     =      1.0E-08
     mixing beta               =       0.7000
     number of iterations used =            8  plain     mixing
     Exchange-correlation      =  SLA  PW   PBE  PBE ( 1  4  3  4 0 0)

     celldm(1)=   5.639000  celldm(2)=   0.000000  celldm(3)=   0.000000
     celldm(4)=   0.000000  celldm(5)=   0.000000  celldm(6)=   0.000000

     crystal axes: (cart. coord. in units of alat)
               a(1) = (   1.000000   0.000000   0.000000 )  
               a(2) = (   0.000000   1.000000   0.000000 )  
               a(3) = (   0.000000   0.000000   1.000000 )  

     reciprocal axes: (cart. coord. in units 2 pi/alat)
               b(1) = (  1.000000  0.000000  0.000000 )  
               b(2) = (  0.000000  1.000000  0.000000 )  
               b(3) = (  0.000000  0.000000  1.000000 )  


     PseudoPot. # 1 for H  read from file:
     ./H.pbe-van_bm.UPF
     MD5 check sum: b5ee9d7bfd3a09ee7748110bda690ff7
     Pseudo is Ultrasoft, Zval =  1.0
     Generated by new atomic code, or converted to UPF format
     Using radial grid of  615 points,  1 beta functions with: 
                l(1) =   0
     Q(r) pseudized with  8 coefficients,  rinner =    0.800

     PseudoPot. # 2 for S  read from file:
     ./S.pbe-van_bm.UPF
     MD5 check sum: 5981569f150ce26f656387b858196b6a
     Pseudo is Ultrasoft, Zval =  6.0
     Generated by new atomic code, or converted to UPF format
     Using radial grid of  811 points,  6 beta functions with: 
                l(1) =   0
                l(2) =   0
                l(3) =   1
                l(4) =   1
                l(5) =   2
                l(6) =   2
     Q(r) pseudized with  8 coefficients,  rinner =    1.100   1.100   1.100
                                                       1.100   1.100

     atomic species   valence    mass     pseudopotential
        H              1.00     1.00800     H ( 1.00)
        S              6.00    32.06000     S ( 1.00)

     48 Sym. Ops., with inversion, found



   Cartesian axes

     site n.     atom                  positions (alat units)
         1           S   tau(   1) = (   0.0000000   0.0000000   0.0000000  )
         2           S   tau(   2) = (   0.5000000   0.5000000   0.5000000  )
         3           H   tau(   3) = (   0.5000000   0.0000000   0.0000000  )
         4           H   tau(   4) = (   0.0000000   0.5000000   0.0000000  )
         5           H   tau(   5) = (   0.0000000   0.0000000   0.5000000  )
         6           H   tau(   6) = (   0.5000000   0.0000000   0.5000000  )
         7           H   tau(   7) = (   0.5000000   0.5000000   0.0000000  )
         8           H   tau(   8) = (   0.0000000   0.5000000   0.5000000  )

     number of k points=    10  gaussian smearing, width (Ry)=  0.0500
                       cart. coord. in units 2pi/alat
        k(    1) = (   0.0000000   0.0000000   0.0000000), wk =   0.0160000
        k(    2) = (   0.0000000   0.0000000   0.2000000), wk =   0.0960000
        k(    3) = (   0.0000000   0.0000000   0.4000000), wk =   0.0960000
        k(    4) = (   0.0000000   0.2000000   0.2000000), wk =   0.1920000
        k(    5) = (   0.0000000   0.2000000   0.4000000), wk =   0.3840000
        k(    6) = (   0.0000000   0.4000000   0.4000000), wk =   0.1920000
        k(    7) = (   0.2000000   0.2000000   0.2000000), wk =   0.1280000
        k(    8) = (   0.2000000   0.2000000   0.4000000), wk =   0.3840000
        k(    9) = (   0.2000000   0.4000000   0.4000000), wk =   0.3840000
        k(   10) = (   0.4000000   0.4000000   0.4000000), wk =   0.1280000

     Dense  grid:     3911 G-vectors     FFT dimensions: (  20,  20,  20)

     Estimated max dynamical RAM per process >       0.22MB

     Estimated total allocated dynamical RAM >       8.01MB
     Message from routine sym_rho_init:
     some processors have no G-vectors for symmetrization
     Message from routine sym_rho_init:
     some processors have no G-vectors for symmetrization
     Message from routine sym_rho_init:
     some processors have no G-vectors for symmetrization
     Message from routine sym_rho_init:
     some processors have no G-vectors for symmetrization
     Message from routine sym_rho_init:
     some processors have no G-vectors for symmetrization

     Initial potential from superposition of free atoms

     starting charge   17.99989, renormalised to   18.00000
     Starting wfc are   14 randomized atomic wfcs

     total cpu time spent up to now is        0.7 secs

     per-process dynamical memory:    25.7 Mb

     Self-consistent Calculation

     iteration #  1     ecut=    30.00 Ry     beta=0.70
     Davidson diagonalization with overlap
     ethr =  1.00E-02,  avg # of iterations =  4.1

     Threshold (ethr) on eigenvalues was too large:
     Diagonalizing with lowered threshold

     Davidson diagonalization with overlap
     ethr =  4.06E-04,  avg # of iterations =  1.8

     total cpu time spent up to now is        0.7 secs

     total energy              =     -46.90385708 Ry
     Harris-Foulkes estimate   =     -46.91700263 Ry
     estimated scf accuracy    <       0.07270716 Ry

     iteration #  2     ecut=    30.00 Ry     beta=0.70
     Davidson diagonalization with overlap
     ethr =  4.04E-04,  avg # of iterations =  1.0

     total cpu time spent up to now is        0.8 secs

     total energy              =     -46.90639203 Ry
     Harris-Foulkes estimate   =     -46.90667929 Ry
     estimated scf accuracy    <       0.00443331 Ry

     iteration #  3     ecut=    30.00 Ry     beta=0.70
     Davidson diagonalization with overlap
     ethr =  2.46E-05,  avg # of iterations =  1.7

     total cpu time spent up to now is        0.9 secs

     total energy              =     -46.90650044 Ry
     Harris-Foulkes estimate   =     -46.90650162 Ry
     estimated scf accuracy    <       0.00007861 Ry

     iteration #  4     ecut=    30.00 Ry     beta=0.70
     Davidson diagonalization with overlap
     ethr =  4.37E-07,  avg # of iterations =  2.3

     total cpu time spent up to now is        0.9 secs

     total energy              =     -46.90651303 Ry
     Harris-Foulkes estimate   =     -46.90651295 Ry
     estimated scf accuracy    <       0.00000076 Ry

     iteration #  5     ecut=    30.00 Ry     beta=0.70
     Davidson diagonalization with overlap
     ethr =  4.20E-09,  avg # of iterations =  2.5

     total cpu time spent up to now is        1.0 secs

     total energy              =     -46.90651324 Ry
     Harris-Foulkes estimate   =     -46.90651325 Ry
     estimated scf accuracy    <       0.00000004 Ry

     iteration #  6     ecut=    30.00 Ry     beta=0.70
     Davidson diagonalization with overlap
     ethr =  1.99E-10,  avg # of iterations =  2.0

     total cpu time spent up to now is        1.0 secs

     End of self-consistent calculation

          k = 0.0000 0.0000 0.0000 (   485 PWs)   bands (ev):

    -7.6029   4.8009   7.8141   7.8141   9.3571   9.3571   9.3571  18.4942
    18.4942  18.4942  18.7585  18.7585  25.5687

          k = 0.0000 0.0000 0.2000 (   486 PWs)   bands (ev):

    -6.9672   2.1937   6.4948   8.4277   9.9209   9.9209  14.6698  14.8403
    16.6531  17.0470  17.0470  21.2693  26.0139

          k = 0.0000 0.0000 0.4000 (   490 PWs)   bands (ev):

    -5.0729  -1.9592   8.1169  10.2443  10.9449  11.5756  11.5756  13.1398
    14.1533  14.1533  21.2636  22.9112  27.1823

          k = 0.0000 0.2000 0.2000 (   499 PWs)   bands (ev):

    -6.3338   2.3279   3.5327   8.0240  10.4731  11.7401  14.5775  14.8997
    16.0401  16.5050  17.7899  23.0607  23.2675

          k = 0.0000 0.2000 0.4000 (   494 PWs)   bands (ev):

    -4.4437  -1.3453   4.7995   7.7648   9.7128  12.0748  12.3808  14.4435
    16.3084  17.3189  21.3824  22.4288  23.2635

          k = 0.0000 0.4000 0.4000 (   507 PWs)   bands (ev):

    -2.5742   0.0881   1.0383   3.6621  11.2232  12.8279  13.4049  14.6130
    16.0082  17.0687  20.8651  22.0884  25.5667

          k = 0.2000 0.2000 0.2000 (   501 PWs)   bands (ev):

    -5.7017   2.5668   4.1397   4.1397  11.8216  12.4905  12.4905  13.9170
    16.5874  16.5874  22.3690  22.3690  24.3875

          k = 0.2000 0.2000 0.4000 (   496 PWs)   bands (ev):

    -3.8163  -0.7330   5.0042   5.9397   7.9633   8.8423  13.5098  14.4808
    18.1606  20.4313  20.7437  21.9742  24.3259

          k = 0.2000 0.4000 0.4000 (   500 PWs)   bands (ev):

    -1.9515   0.6946   1.6497   4.2546   7.2713   9.9978  10.1896  12.5615
    20.1929  21.5489  24.0894  24.2314  26.0039

          k = 0.4000 0.4000 0.4000 (   504 PWs)   bands (ev):

    -0.1076   2.1806   3.4654   3.4654   5.4546   6.4118   6.4118   9.0069
    26.3556  27.0995  27.0995  27.7159  27.7159

     the Fermi energy is    17.3650 ev

!    total energy              =     -46.90651324 Ry
     Harris-Foulkes estimate   =     -46.90651324 Ry
     estimated scf accuracy    <          9.7E-10 Ry

     The total energy is the sum of the following terms:

     one-electron contribution =      27.43117977 Ry
     hartree contribution      =       1.02274197 Ry
     xc contribution           =     -14.89961541 Ry
     ewald contribution        =     -60.44517315 Ry
     smearing contrib. (-TS)   =      -0.01564643 Ry

     convergence has been achieved in   6 iterations

     Forces acting on atoms (cartesian axes, Ry/au):

     atom    1 type  2   force =     0.00000000    0.00000000    0.00000000
     atom    2 type  2   force =     0.00000000    0.00000000   -0.00000000
     atom    3 type  1   force =     0.00000000    0.00000000    0.00000000
     atom    4 type  1   force =     0.00000000    0.00000000   -0.00000000
     atom    5 type  1   force =     0.00000000    0.00000000    0.00000000
     atom    6 type  1   force =     0.00000000    0.00000000   -0.00000000
     atom    7 type  1   force =     0.00000000    0.00000000    0.00000000
     atom    8 type  1   force =     0.00000000    0.00000000   -0.00000000

     Total force =     0.000000     Total SCF correction =     0.000000


     Computing stress (Cartesian axis) and pressure

          total   stress  (Ry/bohr**3)                   (kbar)     P= 2011.25
   0.01367220   0.00000000   0.00000000       2011.25      0.00      0.00
   0.00000000   0.01367220   0.00000000          0.00   2011.25      0.00
   0.00000000   0.00000000   0.01367220          0.00      0.00   2011.25


     Writing output data file h3s-im-3m.save
 
     init_run     :      0.03s CPU      0.06s WALL (       1 calls)
     electrons    :      0.26s CPU      0.37s WALL (       1 calls)
     forces       :      0.01s CPU      0.02s WALL (       1 calls)
     stress       :      0.01s CPU      0.02s WALL (       1 calls)

     Called by init_run:
     wfcinit      :      0.01s CPU      0.02s WALL (       1 calls)
     potinit      :      0.00s CPU      0.00s WALL (       1 calls)

     Called by electrons:
     c_bands      :      0.22s CPU      0.31s WALL (       7 calls)
     sum_band     :      0.03s CPU      0.04s WALL (       7 calls)
     v_of_rho     :      0.00s CPU      0.01s WALL (       7 calls)
     newd         :      0.00s CPU      0.01s WALL (       7 calls)
     mix_rho      :      0.00s CPU      0.01s WALL (       7 calls)

     Called by c_bands:
     init_us_2    :      0.00s CPU      0.00s WALL (     170 calls)
     cegterg      :      0.21s CPU      0.27s WALL (      70 calls)

     Called by sum_band:
     sum_band:bec :      0.00s CPU      0.00s WALL (      70 calls)
     addusdens    :      0.00s CPU      0.00s WALL (       7 calls)

     Called by *egterg:
     h_psi        :      0.11s CPU      0.13s WALL (     234 calls)
     s_psi        :      0.00s CPU      0.00s WALL (     234 calls)
     g_psi        :      0.00s CPU      0.00s WALL (     154 calls)
     cdiaghg      :      0.08s CPU      0.12s WALL (     214 calls)

     Called by h_psi:
     h_psi:pot    :      0.11s CPU      0.13s WALL (     234 calls)
     h_psi:calbec :      0.01s CPU      0.02s WALL (     234 calls)
     vloc_psi     :      0.09s CPU      0.11s WALL (     234 calls)
     add_vuspsi   :      0.00s CPU      0.00s WALL (     234 calls)

     General routines
     calbec       :      0.02s CPU      0.02s WALL (     354 calls)
     fft          :      0.00s CPU      0.01s WALL (     101 calls)
     fftw         :      0.10s CPU      0.12s WALL (    5556 calls)
     davcio       :      0.00s CPU      0.00s WALL (      10 calls)
 
     Parallel routines
     fft_scatter  :      0.08s CPU      0.10s WALL (    5657 calls)
 
     PWSCF        :     0.44s CPU         1.24s WALL

 
   This run was terminated on:  10:41:32   2Apr2020            

=------------------------------------------------------------------------------=
   JOB DONE.
=------------------------------------------------------------------------------=
